ITEM: TIMESTEP
0
ITEM: NUMBER OF ATOMS
64
ITEM: BOX BOUNDS xy xz yz pp pp pp
0.0000000000000000e+00 12.046399 0.0000000000000000e+00
0.0000000000000000e+00 12.046399 0.0000000000000000e+00
0.0000000000000000e+00 12.046399 0.0000000000000000e+00
ITEM: ATOMS id type x y z Qreal Qimage
1   1   0.000000   0.000000   6.023200   1.0000  0.0000i
2   1   0.000000   6.023200   0.000000   1.0000  0.0000i
3   1   0.000000   6.023200   6.023200   1.0000  0.0000i
4   1   6.023200   0.000000   0.000000   1.0000  0.0000i
5   1   6.023200   0.000000   6.023200   1.0000  0.0000i
6   1   6.023200   6.023200   0.000000   1.0000  0.0000i
7   1   6.023200   6.023200   6.023200   1.0000  0.0000i
8   1   0.000000   3.011600   3.011600   1.0000  0.0000i
9   1   0.000000   3.011600   9.034800   1.0000  0.0000i
10   1   0.000000   9.034800   3.011600   1.0000  0.0000i
11   1   0.000000   9.034800   9.034800   1.0000  0.0000i
12   1   6.023200   3.011600   3.011600   1.0000  0.0000i
13   1   6.023200   3.011600   9.034800   1.0000  0.0000i
14   1   6.023200   9.034800   3.011600   1.0000  0.0000i
15   1   6.023200   9.034800   9.034800   1.0000  0.0000i
16   1   3.011600   3.011600   0.000000   1.0000  0.0000i
17   1   3.011600   3.011600   6.023200   1.0000  0.0000i
18   1   3.011600   9.034800   0.000000   1.0000  0.0000i
19   1   3.011600   9.034800   6.023200   1.0000  0.0000i
20   1   9.034800   3.011600   0.000000   1.0000  0.0000i
21   1   9.034800   3.011600   6.023200   1.0000  0.0000i
22   1   9.034800   9.034800   0.000000   1.0000  0.0000i
23   1   9.034800   9.034800   6.023200   1.0000  0.0000i
24   1   3.011600   0.000000   3.011600   1.0000  0.0000i
25   1   3.011600   0.000000   9.034800   1.0000  0.0000i
26   1   3.011600   6.023200   3.011600   1.0000  0.0000i
27   1   3.011600   6.023200   9.034800   1.0000  0.0000i
28   1   9.034800   0.000000   3.011600   1.0000  0.0000i
29   1   9.034800   0.000000   9.034800   1.0000  0.0000i
30   1   9.034800   6.023200   3.011600   1.0000  0.0000i
31   1   9.034800   6.023200   9.034800   1.0000  0.0000i
32   1   0.000000   0.000000   0.000000   1.0000  0.0000i
33   2   0.000000   0.000000   3.011600   1.0000  0.0000i
34   2   0.000000   0.000000   9.034800   1.0000  0.0000i
35   2   0.000000   6.023200   3.011600   1.0000  0.0000i
36   2   0.000000   6.023200   9.034800   1.0000  0.0000i
37   2   6.023200   0.000000   3.011600   1.0000  0.0000i
38   2   6.023200   0.000000   9.034800   1.0000  0.0000i
39   2   6.023200   6.023200   3.011600   1.0000  0.0000i
40   2   6.023200   6.023200   9.034800   1.0000  0.0000i
41   2   0.000000   3.011600   0.000000   1.0000  0.0000i
42   2   0.000000   3.011600   6.023200   1.0000  0.0000i
43   2   0.000000   9.034800   0.000000   1.0000  0.0000i
44   2   0.000000   9.034800   6.023200   1.0000  0.0000i
45   2   6.023200   3.011600   0.000000   1.0000  0.0000i
46   2   6.023200   3.011600   6.023200   1.0000  0.0000i
47   2   6.023200   9.034800   0.000000   1.0000  0.0000i
48   2   6.023200   9.034800   6.023200   1.0000  0.0000i
49   2   3.011600   3.011600   3.011600   1.0000  0.0000i
50   2   3.011600   3.011600   9.034800   1.0000  0.0000i
51   2   3.011600   9.034800   3.011600   1.0000  0.0000i
52   2   3.011600   9.034800   9.034800   1.0000  0.0000i
53   2   9.034800   3.011600   3.011600   1.0000  0.0000i
54   2   9.034800   3.011600   9.034800   1.0000  0.0000i
55   2   9.034800   9.034800   3.011600   1.0000  0.0000i
56   2   9.034800   9.034800   9.034800   1.0000  0.0000i
57   2   3.011600   0.000000   0.000000   1.0000  0.0000i
58   2   3.011600   0.000000   6.023200   1.0000  0.0000i
59   2   3.011600   6.023200   0.000000   1.0000  0.0000i
60   2   3.011600   6.023200   6.023200   1.0000  0.0000i
61   2   9.034800   0.000000   0.000000   1.0000  0.0000i
62   2   9.034800   0.000000   6.023200   1.0000  0.0000i
63   2   9.034800   6.023200   0.000000   1.0000  0.0000i
64   2   9.034800   6.023200   6.023200   1.0000  0.0000i