ITEM: TIMESTEP
0
ITEM: NUMBER OF ATOMS
64
ITEM: BOX BOUNDS xy xz yz pp pp pp
0.0000000000000000e+00 1.2046398999999999e+01 0.0000000000000000e+00
0.0000000000000000e+00 1.2046398999999999e+01 0.0000000000000000e+00
0.0000000000000000e+00 1.2046398999999999e+01 0.0000000000000000e+00
ITEM: ATOMS id type x y z c_TOT[1] c_TOT[2] c_TOT[3] c_TOT[4] c_TOT[5] 
1 1 0 0 6.0232 0.0685428 0.00982093 0.417596 0.111037 0.41442 
2 1 0 6.0232 0 0.0685428 0.00982093 0.417596 0.111037 0.41442 
3 1 0 6.0232 6.0232 0.0685428 0.00982093 0.417596 0.111037 0.41442 
4 1 6.0232 0 0 0.0685428 0.00982093 0.417596 0.111037 0.41442 
5 1 6.0232 0 6.0232 0.0685428 0.00982093 0.417596 0.111037 0.41442 
6 1 6.0232 6.0232 0 0.0685428 0.00982093 0.417596 0.111037 0.41442 
7 1 6.0232 6.0232 6.0232 0.0685428 0.00982093 0.417596 0.111037 0.41442 
8 1 0 3.0116 3.0116 0.0685428 0.00982093 0.417596 0.111037 0.41442 
9 1 0 3.0116 9.0348 0.0685428 0.00982093 0.417596 0.111037 0.41442 
10 1 0 9.0348 3.0116 0.0685428 0.00982093 0.417596 0.111037 0.41442 
11 1 0 9.0348 9.0348 0.0685428 0.00982093 0.417596 0.111037 0.41442 
12 1 6.0232 3.0116 3.0116 0.0685428 0.00982093 0.417596 0.111037 0.41442 
13 1 6.0232 3.0116 9.0348 0.0685428 0.00982093 0.417596 0.111037 0.41442 
14 1 6.0232 9.0348 3.0116 0.0685428 0.00982093 0.417596 0.111037 0.41442 
15 1 6.0232 9.0348 9.0348 0.0685428 0.00982093 0.417596 0.111037 0.41442 
16 1 3.0116 3.0116 0 0.0685428 0.00982093 0.417596 0.111037 0.41442 
17 1 3.0116 3.0116 6.0232 0.0685428 0.00982093 0.417596 0.111037 0.41442 
18 1 3.0116 9.0348 0 0.0685428 0.00982093 0.417596 0.111037 0.41442 
19 1 3.0116 9.0348 6.0232 0.0685428 0.00982093 0.417596 0.111037 0.41442 
20 1 9.0348 3.0116 0 0.0685428 0.00982093 0.417596 0.111037 0.41442 
21 1 9.0348 3.0116 6.0232 0.0685428 0.00982093 0.417596 0.111037 0.41442 
22 1 9.0348 9.0348 0 0.0685428 0.00982093 0.417596 0.111037 0.41442 
23 1 9.0348 9.0348 6.0232 0.0685428 0.00982093 0.417596 0.111037 0.41442 
24 1 3.0116 0 3.0116 0.0685428 0.00982093 0.417596 0.111037 0.41442 
25 1 3.0116 0 9.0348 0.0685428 0.00982093 0.417596 0.111037 0.41442 
26 1 3.0116 6.0232 3.0116 0.0685428 0.00982093 0.417596 0.111037 0.41442 
27 1 3.0116 6.0232 9.0348 0.0685428 0.00982093 0.417596 0.111037 0.41442 
28 1 9.0348 0 3.0116 0.0685428 0.00982093 0.417596 0.111037 0.41442 
29 1 9.0348 0 9.0348 0.0685428 0.00982093 0.417596 0.111037 0.41442 
30 1 9.0348 6.0232 3.0116 0.0685428 0.00982093 0.417596 0.111037 0.41442 
31 1 9.0348 6.0232 9.0348 0.0685428 0.00982093 0.417596 0.111037 0.41442 
32 1 0 0 0 0.0685428 0.00982093 0.417596 0.111037 0.41442 
33 2 0 0 3.0116 0.0685428 0.00982093 0.417596 0.111037 0.41442 
34 2 0 0 9.0348 0.0685428 0.00982093 0.417596 0.111037 0.41442 
35 2 0 6.0232 3.0116 0.0685428 0.00982093 0.417596 0.111037 0.41442 
36 2 0 6.0232 9.0348 0.0685428 0.00982093 0.417596 0.111037 0.41442 
37 2 6.0232 0 3.0116 0.0685428 0.00982093 0.417596 0.111037 0.41442 
38 2 6.0232 0 9.0348 0.0685428 0.00982093 0.417596 0.111037 0.41442 
39 2 6.0232 6.0232 3.0116 0.0685428 0.00982093 0.417596 0.111037 0.41442 
40 2 6.0232 6.0232 9.0348 0.0685428 0.00982093 0.417596 0.111037 0.41442 
41 2 0 3.0116 0 0.0685428 0.00982093 0.417596 0.111037 0.41442 
42 2 0 3.0116 6.0232 0.0685428 0.00982093 0.417596 0.111037 0.41442 
43 2 0 9.0348 0 0.0685428 0.00982093 0.417596 0.111037 0.41442 
44 2 0 9.0348 6.0232 0.0685428 0.00982093 0.417596 0.111037 0.41442 
45 2 6.0232 3.0116 0 0.0685428 0.00982093 0.417596 0.111037 0.41442 
46 2 6.0232 3.0116 6.0232 0.0685428 0.00982093 0.417596 0.111037 0.41442 
47 2 6.0232 9.0348 0 0.0685428 0.00982093 0.417596 0.111037 0.41442 
48 2 6.0232 9.0348 6.0232 0.0685428 0.00982093 0.417596 0.111037 0.41442 
49 2 3.0116 3.0116 3.0116 0.0685428 0.00982093 0.417596 0.111037 0.41442 
50 2 3.0116 3.0116 9.0348 0.0685428 0.00982093 0.417596 0.111037 0.41442 
51 2 3.0116 9.0348 3.0116 0.0685428 0.00982093 0.417596 0.111037 0.41442 
52 2 3.0116 9.0348 9.0348 0.0685428 0.00982093 0.417596 0.111037 0.41442 
53 2 9.0348 3.0116 3.0116 0.0685428 0.00982093 0.417596 0.111037 0.41442 
54 2 9.0348 3.0116 9.0348 0.0685428 0.00982093 0.417596 0.111037 0.41442 
55 2 9.0348 9.0348 3.0116 0.0685428 0.00982093 0.417596 0.111037 0.41442 
56 2 9.0348 9.0348 9.0348 0.0685428 0.00982093 0.417596 0.111037 0.41442 
57 2 3.0116 0 0 0.0685428 0.00982093 0.417596 0.111037 0.41442 
58 2 3.0116 0 6.0232 0.0685428 0.00982093 0.417596 0.111037 0.41442 
59 2 3.0116 6.0232 0 0.0685428 0.00982093 0.417596 0.111037 0.41442 
60 2 3.0116 6.0232 6.0232 0.0685428 0.00982093 0.417596 0.111037 0.41442 
61 2 9.0348 0 0 0.0685428 0.00982093 0.417596 0.111037 0.41442 
62 2 9.0348 0 6.0232 0.0685428 0.00982093 0.417596 0.111037 0.41442 
63 2 9.0348 6.0232 0 0.0685428 0.00982093 0.417596 0.111037 0.41442 
64 2 9.0348 6.0232 6.0232 0.0685428 0.00982093 0.417596 0.111037 0.41442 
ITEM: TIMESTEP
1
ITEM: NUMBER OF ATOMS
64
ITEM: BOX BOUNDS xy xz yz pp pp pp
0.0000000000000000e+00 1.2046398999999999e+01 0.0000000000000000e+00
0.0000000000000000e+00 1.2046398999999999e+01 0.0000000000000000e+00
0.0000000000000000e+00 1.2046398999999999e+01 0.0000000000000000e+00
ITEM: ATOMS id type x y z c_TOT[1] c_TOT[2] c_TOT[3] c_TOT[4] c_TOT[5] 
1 1 0 0 6.0232 0.0685428 0.00982093 0.417596 0.111037 0.41442 
2 1 0 6.0232 0 0.0685428 0.00982093 0.417596 0.111037 0.41442 
3 1 0 6.0232 6.0232 0.0685428 0.00982093 0.417596 0.111037 0.41442 
4 1 6.0232 0 0 0.0685428 0.00982093 0.417596 0.111037 0.41442 
5 1 6.0232 0 6.0232 0.0685428 0.00982093 0.417596 0.111037 0.41442 
6 1 6.0232 6.0232 0 0.0685428 0.00982093 0.417596 0.111037 0.41442 
7 1 6.0232 6.0232 6.0232 0.0685428 0.00982093 0.417596 0.111037 0.41442 
8 1 0 3.0116 3.0116 0.0685428 0.00982093 0.417596 0.111037 0.41442 
9 1 0 3.0116 9.0348 0.0685428 0.00982093 0.417596 0.111037 0.41442 
10 1 0 9.0348 3.0116 0.0685428 0.00982093 0.417596 0.111037 0.41442 
11 1 0 9.0348 9.0348 0.0685428 0.00982093 0.417596 0.111037 0.41442 
12 1 6.0232 3.0116 3.0116 0.0685428 0.00982093 0.417596 0.111037 0.41442 
13 1 6.0232 3.0116 9.0348 0.0685428 0.00982093 0.417596 0.111037 0.41442 
14 1 6.0232 9.0348 3.0116 0.0685428 0.00982093 0.417596 0.111037 0.41442 
15 1 6.0232 9.0348 9.0348 0.0685428 0.00982093 0.417596 0.111037 0.41442 
16 1 3.0116 3.0116 0 0.0685428 0.00982093 0.417596 0.111037 0.41442 
17 1 3.0116 3.0116 6.0232 0.0685428 0.00982093 0.417596 0.111037 0.41442 
18 1 3.0116 9.0348 0 0.0685428 0.00982093 0.417596 0.111037 0.41442 
19 1 3.0116 9.0348 6.0232 0.0685428 0.00982093 0.417596 0.111037 0.41442 
20 1 9.0348 3.0116 0 0.0685428 0.00982093 0.417596 0.111037 0.41442 
21 1 9.0348 3.0116 6.0232 0.0685428 0.00982093 0.417596 0.111037 0.41442 
22 1 9.0348 9.0348 0 0.0685428 0.00982093 0.417596 0.111037 0.41442 
23 1 9.0348 9.0348 6.0232 0.0685428 0.00982093 0.417596 0.111037 0.41442 
24 1 3.0116 0 3.0116 0.0685428 0.00982093 0.417596 0.111037 0.41442 
25 1 3.0116 0 9.0348 0.0685428 0.00982093 0.417596 0.111037 0.41442 
26 1 3.0116 6.0232 3.0116 0.0685428 0.00982093 0.417596 0.111037 0.41442 
27 1 3.0116 6.0232 9.0348 0.0685428 0.00982093 0.417596 0.111037 0.41442 
28 1 9.0348 0 3.0116 0.0685428 0.00982093 0.417596 0.111037 0.41442 
29 1 9.0348 0 9.0348 0.0685428 0.00982093 0.417596 0.111037 0.41442 
30 1 9.0348 6.0232 3.0116 0.0685428 0.00982093 0.417596 0.111037 0.41442 
31 1 9.0348 6.0232 9.0348 0.0685428 0.00982093 0.417596 0.111037 0.41442 
32 1 0 0 0 0.0685428 0.00982093 0.417596 0.111037 0.41442 
33 2 0 0 3.0116 0.0685428 0.00982093 0.417596 0.111037 0.41442 
34 2 0 0 9.0348 0.0685428 0.00982093 0.417596 0.111037 0.41442 
35 2 0 6.0232 3.0116 0.0685428 0.00982093 0.417596 0.111037 0.41442 
36 2 0 6.0232 9.0348 0.0685428 0.00982093 0.417596 0.111037 0.41442 
37 2 6.0232 0 3.0116 0.0685428 0.00982093 0.417596 0.111037 0.41442 
38 2 6.0232 0 9.0348 0.0685428 0.00982093 0.417596 0.111037 0.41442 
39 2 6.0232 6.0232 3.0116 0.0685428 0.00982093 0.417596 0.111037 0.41442 
40 2 6.0232 6.0232 9.0348 0.0685428 0.00982093 0.417596 0.111037 0.41442 
41 2 0 3.0116 0 0.0685428 0.00982093 0.417596 0.111037 0.41442 
42 2 0 3.0116 6.0232 0.0685428 0.00982093 0.417596 0.111037 0.41442 
43 2 0 9.0348 0 0.0685428 0.00982093 0.417596 0.111037 0.41442 
44 2 0 9.0348 6.0232 0.0685428 0.00982093 0.417596 0.111037 0.41442 
45 2 6.0232 3.0116 0 0.0685428 0.00982093 0.417596 0.111037 0.41442 
46 2 6.0232 3.0116 6.0232 0.0685428 0.00982093 0.417596 0.111037 0.41442 
47 2 6.0232 9.0348 0 0.0685428 0.00982093 0.417596 0.111037 0.41442 
48 2 6.0232 9.0348 6.0232 0.0685428 0.00982093 0.417596 0.111037 0.41442 
49 2 3.0116 3.0116 3.0116 0.0685428 0.00982093 0.417596 0.111037 0.41442 
50 2 3.0116 3.0116 9.0348 0.0685428 0.00982093 0.417596 0.111037 0.41442 
51 2 3.0116 9.0348 3.0116 0.0685428 0.00982093 0.417596 0.111037 0.41442 
52 2 3.0116 9.0348 9.0348 0.0685428 0.00982093 0.417596 0.111037 0.41442 
53 2 9.0348 3.0116 3.0116 0.0685428 0.00982093 0.417596 0.111037 0.41442 
54 2 9.0348 3.0116 9.0348 0.0685428 0.00982093 0.417596 0.111037 0.41442 
55 2 9.0348 9.0348 3.0116 0.0685428 0.00982093 0.417596 0.111037 0.41442 
56 2 9.0348 9.0348 9.0348 0.0685428 0.00982093 0.417596 0.111037 0.41442 
57 2 3.0116 0 0 0.0685428 0.00982093 0.417596 0.111037 0.41442 
58 2 3.0116 0 6.0232 0.0685428 0.00982093 0.417596 0.111037 0.41442 
59 2 3.0116 6.0232 0 0.0685428 0.00982093 0.417596 0.111037 0.41442 
60 2 3.0116 6.0232 6.0232 0.0685428 0.00982093 0.417596 0.111037 0.41442 
61 2 9.0348 0 0 0.0685428 0.00982093 0.417596 0.111037 0.41442 
62 2 9.0348 0 6.0232 0.0685428 0.00982093 0.417596 0.111037 0.41442 
63 2 9.0348 6.0232 0 0.0685428 0.00982093 0.417596 0.111037 0.41442 
64 2 9.0348 6.0232 6.0232 0.0685428 0.00982093 0.417596 0.111037 0.41442 
